/*--------------------------------*- C++ -*----------------------------------*\
  =========                 |
  \\      /  F ield         | OpenFOAM: The Open Source CFD Toolbox
   \\    /   O peration     | Website:  https://openfoam.org
    \\  /    A nd           | Version:  10
     \\/     M anipulation  |
\*---------------------------------------------------------------------------*/
FoamFile
{
    format      ascii;
    class       volVectorField;
    location    "677";
    object      U;
}
// * * * * * * * * * * * * * * * * * * * * * * * * * * * * * * * * * * * * * //

dimensions      [0 1 -1 0 0 0 0];

internalField   nonuniform List<vector> 
900
(
(0.100004 0.000196865 -1.67041e-19)
(0.100001 -8.29256e-08 -1.67446e-19)
(0.100001 -6.08608e-08 -1.6694e-19)
(0.1 -3.11363e-08 -1.66948e-19)
(0.1 -1.11142e-08 -1.66045e-19)
(0.1 1.5469e-09 -1.65536e-19)
(0.1 8.85435e-09 -1.65337e-19)
(0.1 1.24338e-08 -1.654e-19)
(0.1 1.35263e-08 -1.65708e-19)
(0.1 1.30397e-08 -1.64864e-19)
(0.1 1.16058e-08 -1.64209e-19)
(0.1 9.64221e-09 -1.6374e-19)
(0.1 7.40722e-09 -1.63435e-19)
(0.1 5.04938e-09 -1.61942e-19)
(0.1 2.64323e-09 -1.60662e-19)
(0.1 2.2275e-10 -1.58222e-19)
(0.1 -2.19476e-09 -1.55987e-19)
(0.1 -4.57471e-09 -1.53942e-19)
(0.1 -6.84693e-09 -1.52104e-19)
(0.1 -8.86511e-09 -1.50498e-19)
(0.1 -1.03811e-08 -1.49148e-19)
(0.1 -1.09724e-08 -1.48059e-19)
(0.1 -1.00259e-08 -1.47216e-19)
(0.1 -6.61805e-09 -1.46579e-19)
(0.1 4.81062e-10 -1.46082e-19)
(0.1 1.29061e-08 -1.45636e-19)
(0.1 3.26589e-08 -1.45142e-19)
(0.1 6.20605e-08 -1.445e-19)
(0.1 8.36826e-08 -1.45075e-19)
(0.100003 -0.000196802 -1.45437e-19)
(0.100005 0.000578366 -1.64347e-19)
(0.099999 -3.73782e-08 -1.64246e-19)
(0.0999991 -1.44886e-08 -1.63997e-19)
(0.0999991 8.09652e-09 -1.63776e-19)
(0.0999992 2.22588e-08 -1.63566e-19)
(0.0999992 3.01515e-08 -1.63648e-19)
(0.0999992 3.35459e-08 -1.64168e-19)
(0.0999992 3.38336e-08 -1.65105e-19)
(0.0999992 3.20586e-08 -1.66244e-19)
(0.0999992 2.89646e-08 -1.67141e-19)
(0.0999993 2.50729e-08 -1.67703e-19)
(0.0999992 2.07199e-08 -1.67629e-19)
(0.0999992 1.61243e-08 -1.66892e-19)
(0.0999992 1.141e-08 -1.65351e-19)
(0.0999992 6.65094e-09 -1.63167e-19)
(0.0999992 1.88207e-09 -1.60401e-19)
(0.0999992 -2.87237e-09 -1.5743e-19)
(0.0999992 -7.5782e-09 -1.54561e-19)
(0.0999992 -1.21762e-08 -1.52017e-19)
(0.0999992 -1.65521e-08 -1.49951e-19)
(0.0999991 -2.05214e-08 -1.48468e-19)
(0.0999991 -2.37517e-08 -1.47623e-19)
(0.0999991 -2.57769e-08 -1.47424e-19)
(0.099999 -2.58495e-08 -1.47831e-19)
(0.099999 -2.29793e-08 -1.48761e-19)
(0.0999989 -1.5788e-08 -1.50071e-19)
(0.0999989 -2.55593e-09 -1.51551e-19)
(0.0999988 1.88158e-08 -1.52901e-19)
(0.0999987 3.99401e-08 -1.53717e-19)
(0.100005 -0.000578196 -1.54124e-19)
(0.100005 0.000959217 -1.62016e-19)
(0.1 5.06883e-08 -1.63815e-19)
(0.1 5.50809e-08 -1.61817e-19)
(0.1 5.04327e-08 -1.61768e-19)
(0.1 4.65685e-08 -1.58085e-19)
(0.1 4.32727e-08 -1.5652e-19)
(0.1 4.02541e-08 -1.57319e-19)
(0.1 3.7257e-08 -1.60563e-19)
(0.1 3.40939e-08 -1.66256e-19)
(0.1 3.06332e-08 -1.68984e-19)
(0.1 2.68322e-08 -1.73587e-19)
(0.1 2.26796e-08 -1.73996e-19)
(0.1 1.82334e-08 -1.75415e-19)
(0.1 1.35504e-08 -1.72178e-19)
(0.1 8.73322e-09 -1.69811e-19)
(0.1 3.86585e-09 -1.62765e-19)
(0.1 -9.46994e-10 -1.56684e-19)
(0.1 -5.62117e-09 -1.51764e-19)
(0.1 -1.0077e-08 -1.48032e-19)
(0.1 -1.42649e-08 -1.45386e-19)
(0.1 -1.81767e-08 -1.43791e-19)
(0.1 -2.1833e-08 -1.43161e-19)
(0.1 -2.53491e-08 -1.43422e-19)
(0.1 -2.88678e-08 -1.4454e-19)
(0.1 -3.26543e-08 -1.46535e-19)
(0.1 -3.70025e-08 -1.49459e-19)
(0.0999999 -4.22749e-08 -1.53355e-19)
(0.0999999 -4.87627e-08 -1.58243e-19)
(0.0999998 -4.70357e-08 -1.58642e-19)
(0.100005 -0.000959045 -1.59326e-19)
(0.100004 0.0013189 -1.36527e-19)
(0.0999993 4.88997e-08 -1.40577e-19)
(0.0999993 5.71147e-08 -1.37039e-19)
(0.0999994 5.5829e-08 -1.3727e-19)
(0.0999994 5.41366e-08 -1.31269e-19)
(0.0999994 5.2005e-08 -1.29451e-19)
(0.0999994 4.93594e-08 -1.30937e-19)
(0.0999995 4.61616e-08 -1.35019e-19)
(0.0999995 4.24056e-08 -1.41078e-19)
(0.0999995 3.81015e-08 -1.48641e-19)
(0.0999995 3.33092e-08 -1.58197e-19)
(0.0999995 2.8082e-08 -1.59643e-19)
(0.0999995 2.25218e-08 -1.64056e-19)
(0.0999995 1.67e-08 -1.60637e-19)
(0.0999995 1.07308e-08 -1.5978e-19)
(0.0999995 4.69188e-09 -1.50878e-19)
(0.0999995 -1.31094e-09 -1.44642e-19)
(0.0999994 -7.19817e-09 -1.40498e-19)
(0.0999994 -1.28807e-08 -1.38132e-19)
(0.0999994 -1.82904e-08 -1.37534e-19)
(0.0999994 -2.33791e-08 -1.37901e-19)
(0.0999993 -2.80961e-08 -1.38706e-19)
(0.0999993 -3.24523e-08 -1.39632e-19)
(0.0999993 -3.64401e-08 -1.40546e-19)
(0.0999992 -4.01358e-08 -1.41513e-19)
(0.0999992 -4.36055e-08 -1.42847e-19)
(0.0999991 -4.69782e-08 -1.44821e-19)
(0.0999991 -5.03487e-08 -1.47959e-19)
(0.099999 -4.50329e-08 -1.5296e-19)
(0.100004 -0.00131871 -1.60366e-19)
(0.100004 0.00167298 -9.61627e-20)
(0.0999999 6.62975e-08 -1.07868e-19)
(0.1 7.59791e-08 -1.01238e-19)
(0.1 7.27133e-08 -9.62969e-20)
(0.1 6.89847e-08 -9.30211e-20)
(0.1 6.48272e-08 -1.00882e-19)
(0.1 6.02492e-08 -1.09343e-19)
(0.1 5.52744e-08 -1.18621e-19)
(0.1 4.99404e-08 -1.29441e-19)
(0.1 4.42572e-08 -1.31849e-19)
(0.1 3.8279e-08 -1.35805e-19)
(0.1 3.20228e-08 -1.31476e-19)
(0.1 2.55661e-08 -1.39427e-19)
(0.1 1.893e-08 -1.38862e-19)
(0.1 1.21974e-08 -1.39142e-19)
(0.1 5.39653e-09 -1.29855e-19)
(0.1 -1.39758e-09 -1.30545e-19)
(0.1 -8.15456e-09 -1.303e-19)
(0.1 -1.48188e-08 -1.28629e-19)
(0.1 -2.13675e-08 -1.35303e-19)
(0.1 -2.7782e-08 -1.40441e-19)
(0.1 -3.40427e-08 -1.44256e-19)
(0.1 -4.01663e-08 -1.46801e-19)
(0.0999999 -4.61378e-08 -1.47926e-19)
(0.0999999 -5.19899e-08 -1.47235e-19)
(0.0999998 -5.77158e-08 -1.44016e-19)
(0.0999998 -6.33523e-08 -1.39332e-19)
(0.0999997 -6.89084e-08 -1.34044e-19)
(0.0999997 -6.23096e-08 -1.28999e-19)
(0.100004 -0.00167282 -1.26302e-19)
(0.100003 0.00200706 -8.84404e-20)
(0.0999995 6.34536e-08 -9.39153e-20)
(0.0999996 7.41253e-08 -9.52792e-20)
(0.0999996 7.22459e-08 -9.28551e-20)
(0.0999997 6.96211e-08 -9.56768e-20)
(0.0999997 6.62904e-08 -1.04549e-19)
(0.0999997 6.22764e-08 -1.10521e-19)
(0.0999997 5.76319e-08 -1.13618e-19)
(0.0999998 5.24243e-08 -1.2299e-19)
(0.0999998 4.66977e-08 -1.28153e-19)
(0.0999998 4.05377e-08 -1.29452e-19)
(0.0999998 3.39905e-08 -1.26655e-19)
(0.0999998 2.71617e-08 -1.3828e-19)
(0.0999998 2.00911e-08 -1.44603e-19)
(0.0999998 1.28847e-08 -1.46487e-19)
(0.0999998 5.5836e-09 -1.44084e-19)
(0.0999998 -1.7149e-09 -1.48297e-19)
(0.0999998 -8.96625e-09 -1.50801e-19)
(0.0999997 -1.60885e-08 -1.52588e-19)
(0.0999997 -2.30366e-08 -1.54201e-19)
(0.0999997 -2.97578e-08 -1.56203e-19)
(0.0999996 -3.61992e-08 -1.58926e-19)
(0.0999996 -4.23344e-08 -1.62606e-19)
(0.0999996 -4.81081e-08 -1.67473e-19)
(0.0999995 -5.35135e-08 -1.73816e-19)
(0.0999995 -5.85024e-08 -1.62267e-19)
(0.0999994 -6.30872e-08 -1.51485e-19)
(0.0999994 -6.72545e-08 -1.40438e-19)
(0.0999993 -5.95982e-08 -1.18208e-19)
(0.100002 -0.00200694 -1.12791e-19)
(0.100002 0.00232856 -1.16e-19)
(0.0999998 7.33442e-08 -1.24926e-19)
(0.0999999 8.44484e-08 -1.22324e-19)
(0.0999999 8.11931e-08 -1.27705e-19)
(0.1 7.73605e-08 -1.22192e-19)
(0.1 7.29638e-08 -1.24493e-19)
(0.1 6.80004e-08 -1.33103e-19)
(0.1 6.25039e-08 -1.46821e-19)
(0.1 5.6529e-08 -1.64626e-19)
(0.1 5.01033e-08 -1.66814e-19)
(0.1 4.33037e-08 -1.72081e-19)
(0.1 3.61605e-08 -1.7995e-19)
(0.1 2.87731e-08 -1.91651e-19)
(0.1 2.11628e-08 -1.8788e-19)
(0.1 1.34277e-08 -1.87775e-19)
(0.1 5.59051e-09 -1.72373e-19)
(0.1 -2.25766e-09 -1.61265e-19)
(0.1 -1.00906e-08 -1.53726e-19)
(0.1 -1.78324e-08 -1.49368e-19)
(0.1 -2.54526e-08 -1.48233e-19)
(0.1 -3.29014e-08 -1.48991e-19)
(0.1 -4.01379e-08 -1.50707e-19)
(0.1 -4.7137e-08 -1.52739e-19)
(0.0999999 -5.38556e-08 -1.54682e-19)
(0.0999999 -6.02911e-08 -1.56338e-19)
(0.0999998 -6.64108e-08 -1.5775e-19)
(0.0999997 -7.22387e-08 -1.58762e-19)
(0.0999997 -7.77826e-08 -1.5941e-19)
(0.0999996 -6.96333e-08 -1.59837e-19)
(0.100002 -0.00232849 -1.59785e-19)
(0.100001 0.00263099 -1.93732e-20)
(0.0999997 7.35012e-08 -3.65178e-20)
(0.0999997 8.47004e-08 -3.51224e-20)
(0.0999998 8.14756e-08 -3.42279e-20)
(0.0999998 7.76722e-08 -3.52784e-20)
(0.0999999 7.32967e-08 -5.5356e-20)
(0.0999999 6.83461e-08 -7.57365e-20)
(0.1 6.28505e-08 -9.69442e-20)
(0.1 5.68627e-08 -1.20313e-19)
(0.1 5.04095e-08 -1.27969e-19)
(0.1 4.35661e-08 -1.37766e-19)
(0.1 3.63638e-08 -1.31718e-19)
(0.1 2.89022e-08 -1.46053e-19)
(0.1 2.12033e-08 -1.44213e-19)
(0.1 1.3367e-08 -1.4369e-19)
(0.1 5.41713e-09 -1.26104e-19)
(0.1 -2.55202e-09 -1.26764e-19)
(0.1 -1.05116e-08 -1.26207e-19)
(0.1 -1.83801e-08 -1.23584e-19)
(0.1 -2.61229e-08 -1.36448e-19)
(0.0999999 -3.36832e-08 -1.46995e-19)
(0.0999999 -4.10146e-08 -1.55606e-19)
(0.0999998 -4.80825e-08 -1.62472e-19)
(0.0999998 -5.48385e-08 -1.67564e-19)
(0.0999997 -6.12763e-08 -1.70584e-19)
(0.0999997 -6.73519e-08 -1.70919e-19)
(0.0999996 -7.30907e-08 -1.69334e-19)
(0.0999996 -7.84873e-08 -1.66368e-19)
(0.0999995 -7.00555e-08 -1.62493e-19)
(0.100001 -0.00263096 -1.60036e-19)
(0.1 0.00291609 -5.87677e-20)
(0.0999998 7.95804e-08 -6.53678e-20)
(0.0999999 9.0872e-08 -6.12062e-20)
(0.0999999 8.65951e-08 -4.6839e-20)
(0.1 8.18674e-08 -5.6079e-20)
(0.1 7.66872e-08 -7.37478e-20)
(0.1 7.10439e-08 -8.47771e-20)
(0.1 6.49565e-08 -9.02479e-20)
(0.1 5.84707e-08 -1.07651e-19)
(0.1 5.15993e-08 -1.19539e-19)
(0.1 4.44086e-08 -1.26294e-19)
(0.1 3.69145e-08 -1.27341e-19)
(0.1 2.92062e-08 -1.3991e-19)
(0.1 2.12899e-08 -1.46677e-19)
(0.1 1.32529e-08 -1.4811e-19)
(0.1 5.10393e-09 -1.43678e-19)
(0.1 -3.07454e-09 -1.52232e-19)
(0.1 -1.12683e-08 -1.58211e-19)
(0.1 -1.94069e-08 -1.62943e-19)
(0.1 -2.74679e-08 -1.67213e-19)
(0.1 -3.54031e-08 -1.71752e-19)
(0.1 -4.31752e-08 -1.7702e-19)
(0.1 -5.07562e-08 -1.83346e-19)
(0.1 -5.81055e-08 -1.91014e-19)
(0.0999999 -6.52203e-08 -2.00314e-19)
(0.0999999 -7.2065e-08 -1.93959e-19)
(0.0999998 -7.86668e-08 -1.88548e-19)
(0.0999997 -8.5026e-08 -1.83006e-19)
(0.0999997 -7.6356e-08 -1.58477e-19)
(0.1 -0.00291611 -1.47822e-19)
(0.0999991 0.00318108 -1.54194e-19)
(0.0999998 8.17885e-08 -1.66477e-19)
(0.0999999 9.29496e-08 -1.56603e-19)
(0.0999999 8.80891e-08 -1.58523e-19)
(0.1 8.285e-08 -1.39103e-19)
(0.1 7.72332e-08 -1.31667e-19)
(0.1 7.12315e-08 -1.33926e-19)
(0.1 6.48621e-08 -1.44288e-19)
(0.1 5.81661e-08 -1.61609e-19)
(0.1 5.11514e-08 -1.68682e-19)
(0.1 4.38747e-08 -1.82345e-19)
(0.1 3.6344e-08 -1.85881e-19)
(0.1 2.86365e-08 -1.96574e-19)
(0.1 2.07482e-08 -1.97205e-19)
(0.1 1.27535e-08 -2.04583e-19)
(0.1 4.65005e-09 -1.85174e-19)
(0.1 -3.49186e-09 -1.7209e-19)
(0.1 -1.16686e-08 -1.64123e-19)
(0.1 -1.98191e-08 -1.60393e-19)
(0.1 -2.79298e-08 -1.6043e-19)
(0.1 -3.59584e-08 -1.62771e-19)
(0.1 -4.38742e-08 -1.66365e-19)
(0.1 -5.16494e-08 -1.70516e-19)
(0.1 -5.92467e-08 -1.7486e-19)
(0.0999999 -6.66623e-08 -1.79376e-19)
(0.0999999 -7.38542e-08 -1.84444e-19)
(0.0999998 -8.08456e-08 -1.90324e-19)
(0.0999997 -8.76212e-08 -1.97607e-19)
(0.0999996 -7.88505e-08 -2.0705e-19)
(0.099999 -0.00318114 -2.19228e-19)
(0.0999982 0.00342551 5.4392e-22)
(0.0999999 8.59677e-08 -1.16999e-20)
(0.1 9.69977e-08 -5.54909e-21)
(0.1 9.11883e-08 2.1117e-21)
(0.1 8.5109e-08 1.04363e-20)
(0.1 7.87668e-08 -1.09367e-20)
(0.1 7.2156e-08 -3.08396e-20)
(0.1 6.52931e-08 -5.07453e-20)
(0.1 5.82146e-08 -7.27698e-20)
(0.1 5.09218e-08 -8.11628e-20)
(0.1 4.3461e-08 -9.16608e-20)
(0.1 3.58278e-08 -8.88788e-20)
(0.1 2.80834e-08 -1.05136e-19)
(0.1 2.02073e-08 -1.08067e-19)
(0.1 1.22544e-08 -1.12892e-19)
(0.1 4.20403e-09 -1.03516e-19)
(0.1 -3.89309e-09 -1.11409e-19)
(0.1 -1.20522e-08 -1.18874e-19)
(0.1 -2.02304e-08 -1.24637e-19)
(0.1 -2.84303e-08 -1.43645e-19)
(0.1 -3.66218e-08 -1.59837e-19)
(0.1 -4.47871e-08 -1.73138e-19)
(0.1 -5.29046e-08 -1.83341e-19)
(0.1 -6.09449e-08 -1.90056e-19)
(0.1 -6.89019e-08 -1.92676e-19)
(0.1 -7.67383e-08 -1.90335e-19)
(0.0999999 -8.44676e-08 -1.84604e-19)
(0.0999998 -9.2073e-08 -1.7708e-19)
(0.0999998 -8.32646e-08 -1.69748e-19)
(0.099998 -0.0034256 -1.654e-19)
(0.099997 0.00364777 -5.76618e-20)
(0.0999999 8.99693e-08 -5.36638e-20)
(0.1 1.00816e-07 -4.52215e-20)
(0.1 9.40221e-08 -3.2066e-20)
(0.1 8.70707e-08 -4.31069e-20)
(0.1 7.99745e-08 -4.91492e-20)
(0.1 7.27339e-08 -5.07612e-20)
(0.1 6.53672e-08 -4.73209e-20)
(0.1 5.7906e-08 -6.76504e-20)
(0.1 5.03474e-08 -8.03485e-20)
(0.1 4.2724e-08 -8.53874e-20)
(0.1 3.50208e-08 -8.15235e-20)
(0.1 2.7278e-08 -9.90988e-20)
(0.1 1.94596e-08 -1.08543e-19)
(0.1 1.15965e-08 -1.11765e-19)
(0.1 3.64924e-09 -1.09865e-19)
(0.1 -4.35583e-09 -1.33383e-19)
(0.1 -1.24529e-08 -1.5354e-19)
(0.1 -2.06199e-08 -1.7153e-19)
(0.1 -2.88761e-08 -1.88047e-19)
(0.1 -3.7206e-08 -2.03788e-19)
(0.1 -4.56036e-08 -2.19135e-19)
(0.1 -5.40534e-08 -2.3427e-19)
(0.1 -6.25314e-08 -2.49247e-19)
(0.1 -7.10306e-08 -2.64018e-19)
(0.1 -7.95089e-08 -2.47866e-19)
(0.0999999 -8.79722e-08 -2.29008e-19)
(0.0999999 -9.63902e-08 -2.04782e-19)
(0.0999998 -8.75403e-08 -1.71986e-19)
(0.0999969 -0.00364788 -1.57618e-19)
(0.099996 0.00384649 -6.28764e-20)
(0.1 9.20268e-08 -7.66239e-20)
(0.1 1.02436e-07 -7.32261e-20)
(0.1 9.4755e-08 -8.22452e-20)
(0.1 8.70207e-08 -7.49922e-20)
(0.1 7.92674e-08 -7.99408e-20)
(0.1 7.15098e-08 -9.53353e-20)
(0.1 6.37724e-08 -1.19944e-19)
(0.1 5.60862e-08 -1.52923e-19)
(0.1 4.84439e-08 -1.65126e-19)
(0.100001 4.08663e-08 -1.85923e-19)
(0.100001 3.33237e-08 -1.87082e-19)
(0.100001 2.58341e-08 -1.96857e-19)
(0.100001 1.83407e-08 -1.84179e-19)
(0.100001 1.08459e-08 -1.76468e-19)
(0.100001 3.28556e-09 -1.72319e-19)
(0.100001 -4.34353e-09 -1.72616e-19)
(0.100001 -1.21009e-08 -1.7674e-19)
(0.100001 -1.99919e-08 -1.8442e-19)
(0.1 -2.8057e-08 -1.95822e-19)
(0.1 -3.63001e-08 -2.09455e-19)
(0.1 -4.47308e-08 -2.24276e-19)
(0.1 -5.3343e-08 -2.39609e-19)
(0.1 -6.21189e-08 -2.5511e-19)
(0.1 -7.10473e-08 -2.70765e-19)
(0.1 -8.00837e-08 -2.8692e-19)
(0.1 -8.9215e-08 -3.03846e-19)
(0.1 -9.83939e-08 -3.22168e-19)
(0.0999999 -8.98168e-08 -3.42814e-19)
(0.0999959 -0.00384663 -3.66537e-19)
(0.0999947 0.0040207 1.32393e-19)
(0.1 9.96717e-08 1.04736e-19)
(0.1 1.09961e-07 1.03478e-19)
(0.1 1.00683e-07 1.01103e-19)
(0.1 9.15323e-08 9.72047e-20)
(0.1 8.25428e-08 6.54668e-20)
(0.1 7.37313e-08 3.36844e-20)
(0.1 6.51223e-08 1.39878e-21)
(0.1 5.67411e-08 -3.28758e-20)
(0.1 4.85734e-08 -4.16494e-20)
(0.1 4.0623e-08 -5.11931e-20)
(0.1 3.28436e-08 -6.13334e-20)
(0.100001 2.52257e-08 -9.96716e-20)
(0.100001 1.76879e-08 -1.12213e-19)
(0.100001 1.01991e-08 -1.25692e-19)
(0.100001 2.66583e-09 -1.12757e-19)
(0.100001 -4.95036e-09 -1.26763e-19)
(0.1 -1.27387e-08 -1.38901e-19)
(0.1 -2.07358e-08 -1.48024e-19)
(0.1 -2.90081e-08 -1.8021e-19)
(0.1 -3.75824e-08 -2.08525e-19)
(0.1 -4.64868e-08 -2.33155e-19)
(0.1 -5.57267e-08 -2.54078e-19)
(0.1 -6.52933e-08 -2.71068e-19)
(0.1 -7.51772e-08 -2.83698e-19)
(0.1 -8.53328e-08 -2.91343e-19)
(0.1 -9.57435e-08 -2.94876e-19)
(0.1 -1.0636e-07 -2.95107e-19)
(0.0999999 -9.76996e-08 -2.92949e-19)
(0.0999946 -0.00402084 -2.91275e-19)
(0.0999937 0.00416787 1.01274e-19)
(0.1 9.54939e-08 8.47544e-20)
(0.1 1.04636e-07 7.60682e-20)
(0.1 9.48932e-08 7.43271e-20)
(0.100001 8.53481e-08 5.56745e-20)
(0.100001 7.60938e-08 2.01634e-20)
(0.100001 6.71853e-08 -6.71694e-21)
(0.100001 5.86678e-08 -2.38237e-20)
(0.100001 5.05724e-08 -5.41669e-20)
(0.100001 4.28831e-08 -7.42321e-20)
(0.100001 3.55894e-08 -8.59912e-20)
(0.100001 2.86266e-08 -8.99759e-20)
(0.100001 2.19546e-08 -1.12612e-19)
(0.100001 1.54631e-08 -1.29188e-19)
(0.100001 9.08181e-09 -1.40922e-19)
(0.100001 2.68188e-09 -1.47842e-19)
(0.100001 -3.81688e-09 -1.75862e-19)
(0.100001 -1.05397e-08 -2.01423e-19)
(0.100001 -1.75615e-08 -2.25389e-19)
(0.100001 -2.49793e-08 -2.48996e-19)
(0.100001 -3.28474e-08 -2.72147e-19)
(0.100001 -4.12147e-08 -2.9495e-19)
(0.100001 -5.00992e-08 -3.17573e-19)
(0.100001 -5.94967e-08 -3.40124e-19)
(0.100001 -6.93879e-08 -3.62526e-19)
(0.1 -7.97107e-08 -3.58643e-19)
(0.1 -9.04077e-08 -3.53607e-19)
(0.1 -1.01374e-07 -3.46229e-19)
(0.1 -9.37149e-08 -3.08855e-19)
(0.0999936 -0.00416801 -2.91148e-19)
(0.099992 0.00428861 -7.44009e-20)
(0.1 1.14094e-07 -8.37763e-20)
(0.1 1.23562e-07 -7.9106e-20)
(0.1 1.10664e-07 -1.08448e-19)
(0.1 9.83434e-08 -1.2457e-19)
(0.1 8.66422e-08 -1.52706e-19)
(0.1 7.55913e-08 -1.94135e-19)
(0.1 6.52181e-08 -2.50406e-19)
(0.1 5.55365e-08 -2.5117e-19)
(0.1 4.65133e-08 -2.43094e-19)
(0.1 3.81114e-08 -2.48968e-19)
(0.1 3.02385e-08 -2.43765e-19)
(0.1 2.28152e-08 -2.51127e-19)
(0.1 1.56934e-08 -2.47041e-19)
(0.1 8.75523e-09 -2.56007e-19)
(0.1 1.82774e-09 -2.54768e-19)
(0.1 -5.21991e-09 -2.44701e-19)
(0.1 -1.25572e-08 -2.50703e-19)
(0.1 -2.03052e-08 -2.50326e-19)
(0.1 -2.85999e-08 -2.68744e-19)
(0.1 -3.75315e-08 -2.84004e-19)
(0.1 -4.7178e-08 -2.98058e-19)
(0.1 -5.75804e-08 -3.12751e-19)
(0.1 -6.87534e-08 -3.29897e-19)
(0.1 -8.06927e-08 -3.5134e-19)
(0.1 -9.33527e-08 -3.54884e-19)
(0.1 -1.06701e-07 -3.65653e-19)
(0.1 -1.2068e-07 -3.84833e-19)
(0.1 -1.1252e-07 -3.89716e-19)
(0.0999919 -0.00428875 -3.799e-19)
(0.0999914 0.00437717 -2.61617e-19)
(0.100001 8.99013e-08 -2.74982e-19)
(0.100001 9.64381e-08 -2.78054e-19)
(0.100001 8.49536e-08 -2.92588e-19)
(0.100001 7.39176e-08 -2.95342e-19)
(0.100001 6.35446e-08 -3.06945e-19)
(0.100001 5.39718e-08 -3.26011e-19)
(0.100001 4.5288e-08 -3.51535e-19)
(0.100001 3.75356e-08 -3.82935e-19)
(0.100001 3.06894e-08 -3.96823e-19)
(0.100001 2.47001e-08 -4.1632e-19)
(0.100001 1.94521e-08 -4.19836e-19)
(0.100001 1.48282e-08 -4.29729e-19)
(0.100001 1.06399e-08 -4.22367e-19)
(0.100001 6.71759e-09 -4.19282e-19)
(0.100001 2.83909e-09 -3.97132e-19)
(0.100001 -1.18253e-09 -3.77514e-19)
(0.100001 -5.56655e-09 -3.59354e-19)
(0.100001 -1.04852e-08 -3.4167e-19)
(0.100001 -1.61159e-08 -3.24462e-19)
(0.100001 -2.25856e-08 -3.07854e-19)
(0.100001 -2.99963e-08 -2.91827e-19)
(0.100001 -3.84013e-08 -2.76392e-19)
(0.100001 -4.78087e-08 -2.61751e-19)
(0.100001 -5.81837e-08 -2.48496e-19)
(0.100001 -6.94227e-08 -2.37849e-19)
(0.100001 -8.1386e-08 -2.28817e-19)
(0.100001 -9.38483e-08 -2.21352e-19)
(0.100001 -8.84909e-08 -2.16476e-19)
(0.0999913 -0.00437731 -2.14692e-19)
(0.0999887 0.00443957 -2.13296e-20)
(0.0999997 1.41104e-07 -4.36584e-20)
(0.0999998 1.49543e-07 -6.83167e-20)
(0.0999998 1.30553e-07 -9.64069e-20)
(0.0999998 1.12971e-07 -1.27963e-19)
(0.0999999 9.6795e-08 -1.6421e-19)
(0.0999999 8.20322e-08 -2.05235e-19)
(0.0999999 6.86861e-08 -2.49909e-19)
(0.0999999 5.67362e-08 -2.95687e-19)
(0.0999999 4.6106e-08 -3.01379e-19)
(0.0999999 3.66928e-08 -3.07502e-19)
(0.0999998 2.83282e-08 -3.13518e-19)
(0.0999998 2.08322e-08 -3.39967e-19)
(0.0999998 1.39545e-08 -3.4663e-19)
(0.0999998 7.454e-09 -3.55005e-19)
(0.0999998 1.03921e-09 -3.45657e-19)
(0.0999998 -5.5518e-09 -3.40103e-19)
(0.0999998 -1.26077e-08 -3.39773e-19)
(0.0999998 -2.03714e-08 -3.23702e-19)
(0.0999998 -2.90834e-08 -3.12129e-19)
(0.0999998 -3.8931e-08 -3.02678e-19)
(0.0999998 -5.00706e-08 -2.93247e-19)
(0.0999998 -6.26066e-08 -2.8175e-19)
(0.0999998 -7.66003e-08 -2.65865e-19)
(0.0999998 -9.20781e-08 -2.42767e-19)
(0.0999998 -1.09022e-07 -2.50467e-19)
(0.0999998 -1.27422e-07 -2.4708e-19)
(0.0999997 -1.47269e-07 -2.31118e-19)
(0.0999997 -1.39862e-07 -2.20496e-19)
(0.0999886 -0.00443971 -2.35511e-19)
(0.0999897 0.00446057 -5.23047e-20)
(0.100002 6.00551e-08 -7.08338e-20)
(0.100002 6.1477e-08 -7.13019e-20)
(0.100002 5.02204e-08 -9.31508e-20)
(0.100003 3.94648e-08 -9.96564e-20)
(0.100003 2.9694e-08 -1.29611e-19)
(0.100003 2.1221e-08 -1.84262e-19)
(0.100003 1.42348e-08 -2.65758e-19)
(0.100003 8.81897e-09 -3.00609e-19)
(0.100003 4.94914e-09 -3.27808e-19)
(0.100003 2.53403e-09 -3.47098e-19)
(0.100003 1.39319e-09 -3.57485e-19)
(0.100003 1.31184e-09 -3.59093e-19)
(0.100003 1.99712e-09 -3.51395e-19)
(0.100003 3.15162e-09 -3.34964e-19)
(0.100003 4.42819e-09 -3.09581e-19)
(0.100003 5.50217e-09 -2.76065e-19)
(0.100003 6.02862e-09 -2.73e-19)
(0.100003 5.70866e-09 -2.6369e-19)
(0.100003 4.25798e-09 -2.87514e-19)
(0.100003 1.45556e-09 -3.08764e-19)
(0.100003 -2.86861e-09 -3.29906e-19)
(0.100003 -8.8073e-09 -3.53342e-19)
(0.100003 -1.6372e-08 -3.81498e-19)
(0.100003 -2.54832e-08 -4.16912e-19)
(0.100003 -3.59402e-08 -4.23958e-19)
(0.100002 -4.74274e-08 -4.42337e-19)
(0.100002 -5.94517e-08 -4.73705e-19)
(0.100002 -5.89527e-08 -4.8171e-19)
(0.0999896 -0.00446069 -4.6644e-19)
(0.0999839 0.00446213 -3.98513e-19)
(0.0999983 1.97997e-07 -4.09642e-19)
(0.0999983 2.05357e-07 -3.94865e-19)
(0.0999983 1.74887e-07 -3.88477e-19)
(0.0999982 1.47537e-07 -3.89048e-19)
(0.0999982 1.23095e-07 -3.95586e-19)
(0.0999981 1.01425e-07 -4.07418e-19)
(0.0999981 8.24219e-08 -4.24108e-19)
(0.099998 6.59601e-08 -4.45397e-19)
(0.099998 5.18585e-08 -4.71218e-19)
(0.0999979 3.98918e-08 -5.03324e-19)
(0.0999979 2.97586e-08 -5.0863e-19)
(0.0999978 2.11219e-08 -5.22904e-19)
(0.0999978 1.35697e-08 -5.10498e-19)
(0.0999978 6.6791e-09 -5.04609e-19)
(0.0999978 -2.0955e-11 -4.68532e-19)
(0.0999978 -6.98359e-09 -4.35854e-19)
(0.0999978 -1.46777e-08 -4.05136e-19)
(0.0999979 -2.35273e-08 -3.74881e-19)
(0.0999979 -3.39369e-08 -3.45209e-19)
(0.099998 -4.62481e-08 -3.16183e-19)
(0.099998 -6.07532e-08 -2.87912e-19)
(0.0999981 -7.76779e-08 -2.60625e-19)
(0.0999981 -9.7192e-08 -2.34743e-19)
(0.0999982 -1.19423e-07 -2.10969e-19)
(0.0999982 -1.44467e-07 -1.90396e-19)
(0.0999982 -1.72456e-07 -1.72964e-19)
(0.0999983 -2.03594e-07 -1.59147e-19)
(0.0999983 -1.97036e-07 -1.49998e-19)
(0.0999839 -0.00446225 -1.45782e-19)
(0.0999898 0.00440358 -1.84902e-19)
(0.100006 -2.40424e-08 -2.1121e-19)
(0.100006 -3.16549e-08 -2.34107e-19)
(0.100006 -3.65761e-08 -2.54562e-19)
(0.100006 -4.17155e-08 -2.73389e-19)
(0.100006 -4.60154e-08 -2.91283e-19)
(0.100006 -4.8788e-08 -3.09018e-19)
(0.100006 -4.96179e-08 -3.27304e-19)
(0.100006 -4.83029e-08 -3.46835e-19)
(0.100006 -4.48243e-08 -3.36517e-19)
(0.100006 -3.92926e-08 -3.27542e-19)
(0.100006 -3.19447e-08 -3.19321e-19)
(0.100006 -2.30899e-08 -3.43126e-19)
(0.100006 -1.31287e-08 -3.67956e-19)
(0.100006 -2.48871e-09 -3.94647e-19)
(0.100006 8.35256e-09 -3.92396e-19)
(0.100006 1.89294e-08 -3.92722e-19)
(0.100006 2.87658e-08 -3.95367e-19)
(0.100006 3.74335e-08 -3.68477e-19)
(0.100006 4.45383e-08 -3.42491e-19)
(0.100006 4.97672e-08 -3.16066e-19)
(0.100006 5.28908e-08 -2.87875e-19)
(0.100006 5.37986e-08 -2.56573e-19)
(0.100006 5.25191e-08 -2.20765e-19)
(0.100006 4.92519e-08 -1.78968e-19)
(0.100006 4.44219e-08 -1.61377e-19)
(0.100006 3.8719e-08 -1.3578e-19)
(0.100006 3.32087e-08 -1.01612e-19)
(0.100006 2.48886e-08 -8.99787e-20)
(0.0999897 -0.00440369 -1.00026e-19)
(0.0999762 0.00434762 -2.94063e-19)
(0.099994 3.15633e-07 -2.94043e-19)
(0.0999939 3.21455e-07 -2.94071e-19)
(0.0999938 2.6824e-07 -2.94364e-19)
(0.0999936 2.21805e-07 -2.95231e-19)
(0.0999935 1.81352e-07 -2.97149e-19)
(0.0999933 1.46332e-07 -2.99631e-19)
(0.0999931 1.16315e-07 -3.02348e-19)
(0.099993 9.09021e-08 -3.05099e-19)
(0.0999928 6.96615e-08 -3.07784e-19)
(0.0999927 5.21147e-08 -3.10479e-19)
(0.0999926 3.77039e-08 -3.13363e-19)
(0.0999925 2.58181e-08 -3.16738e-19)
(0.0999924 1.57671e-08 -3.20972e-19)
(0.0999924 6.83245e-09 -3.26614e-19)
(0.0999924 -1.75146e-09 -3.3328e-19)
(0.0999924 -1.07417e-08 -3.40867e-19)
(0.0999925 -2.09023e-08 -3.49476e-19)
(0.0999926 -3.29522e-08 -3.58269e-19)
(0.0999927 -4.75762e-08 -3.66659e-19)
(0.0999928 -6.53882e-08 -3.74051e-19)
(0.0999929 -8.69389e-08 -3.79938e-19)
(0.0999931 -1.12707e-07 -3.83859e-19)
(0.0999933 -1.43115e-07 -3.85374e-19)
(0.0999934 -1.78564e-07 -3.84043e-19)
(0.0999936 -2.19475e-07 -3.7943e-19)
(0.0999937 -2.66395e-07 -3.70872e-19)
(0.0999939 -3.20115e-07 -3.57683e-19)
(0.0999939 -3.14901e-07 -3.67741e-19)
(0.0999762 -0.00434771 -3.72725e-19)
(0.0999943 0.00419358 -3.18624e-19)
(0.100014 -2.10336e-07 -3.1622e-19)
(0.100014 -2.30899e-07 -3.11328e-19)
(0.100014 -2.14476e-07 -3.03795e-19)
(0.100014 -2.01097e-07 -2.93308e-19)
(0.100014 -1.88626e-07 -3.04889e-19)
(0.100014 -1.75658e-07 -3.13521e-19)
(0.100014 -1.61314e-07 -3.19535e-19)
(0.100014 -1.4511e-07 -3.23184e-19)
(0.100014 -1.2686e-07 -3.2454e-19)
(0.100014 -1.06586e-07 -3.23595e-19)
(0.100014 -8.44846e-08 -3.20243e-19)
(0.100014 -6.08538e-08 -3.14253e-19)
(0.100014 -3.60911e-08 -3.05248e-19)
(0.100014 -1.06323e-08 -3.18127e-19)
(0.100014 1.50405e-08 -3.27659e-19)
(0.100014 4.04512e-08 -3.33838e-19)
(0.100014 6.5119e-08 -3.61863e-19)
(0.100014 8.86076e-08 -3.86751e-19)
(0.100014 1.10525e-07 -4.08693e-19)
(0.100014 1.30568e-07 -4.28521e-19)
(0.100014 1.4855e-07 -4.46798e-19)
(0.100014 1.64447e-07 -4.63841e-19)
(0.100014 1.78451e-07 -4.79724e-19)
(0.100014 1.91048e-07 -4.94265e-19)
(0.100014 2.0312e-07 -5.07001e-19)
(0.100014 2.16077e-07 -5.1809e-19)
(0.100014 2.3206e-07 -5.27384e-19)
(0.100014 2.10968e-07 -5.34432e-19)
(0.0999943 -0.00419366 -5.38176e-19)
(0.0999623 0.00409445 -3.92056e-19)
(0.0999834 5.33408e-07 -3.92254e-19)
(0.0999831 5.33879e-07 -3.92689e-19)
(0.0999828 4.36341e-07 -3.9338e-19)
(0.0999825 3.53077e-07 -3.94306e-19)
(0.0999822 2.82135e-07 -3.95375e-19)
(0.0999818 2.22108e-07 -3.96383e-19)
(0.0999815 1.71877e-07 -3.97099e-19)
(0.0999812 1.30445e-07 -3.97251e-19)
(0.0999809 9.68207e-08 -3.97268e-19)
(0.0999806 6.99765e-08 -3.97494e-19)
(0.0999804 4.88047e-08 -3.98325e-19)
(0.0999803 3.21362e-08 -4.00068e-19)
(0.0999801 1.87219e-08 -4.03129e-19)
(0.0999801 7.27756e-09 -4.07952e-19)
(0.0999801 -3.52522e-09 -4.15015e-19)
(0.0999801 -1.50111e-08 -4.24769e-19)
(0.0999802 -2.8507e-08 -4.37797e-19)
(0.0999804 -4.52979e-08 -4.54717e-19)
(0.0999806 -6.66281e-08 -4.53889e-19)
(0.0999809 -9.36697e-08 -4.57759e-19)
(0.0999811 -1.27524e-07 -4.6651e-19)
(0.0999815 -1.69219e-07 -4.80442e-19)
(0.0999818 -2.19739e-07 -4.99966e-19)
(0.0999822 -2.80083e-07 -5.25605e-19)
(0.0999825 -3.51363e-07 -5.35611e-19)
(0.0999828 -4.34985e-07 -5.52302e-19)
(0.0999831 -5.32893e-07 -5.75709e-19)
(0.0999833 -5.32868e-07 -6.05936e-19)
(0.0999623 -0.00409451 -6.20719e-19)
(0.100008 0.00382597 -3.8955e-19)
(0.100031 -5.54094e-07 -3.90391e-19)
(0.100031 -5.84595e-07 -3.91954e-19)
(0.100031 -5.14822e-07 -3.94515e-19)
(0.100031 -4.55878e-07 -3.98074e-19)
(0.100032 -4.03907e-07 -4.03126e-19)
(0.100032 -3.5631e-07 -4.09887e-19)
(0.100032 -3.11381e-07 -4.18432e-19)
(0.100032 -2.68035e-07 -4.09268e-19)
(0.100032 -2.25621e-07 -4.00911e-19)
(0.100032 -1.83762e-07 -3.92795e-19)
(0.100032 -1.42255e-07 -3.84192e-19)
(0.100031 -1.00982e-07 -3.75204e-19)
(0.100031 -5.98782e-08 -3.65615e-19)
(0.100031 -1.88769e-08 -3.55587e-19)
(0.100031 2.20738e-08 -3.44993e-19)
(0.100031 6.30396e-08 -3.3458e-19)
(0.100031 1.04074e-07 -3.24902e-19)
(0.100032 1.45243e-07 -3.16374e-19)
(0.100032 1.86614e-07 -3.09315e-19)
(0.100032 2.28306e-07 -3.04084e-19)
(0.100032 2.70524e-07 -3.01006e-19)
(0.100032 3.13646e-07 -3.00406e-19)
(0.100032 3.58329e-07 -3.02626e-19)
(0.100032 4.05655e-07 -3.08056e-19)
(0.100031 4.5734e-07 -3.1715e-19)
(0.100031 5.15978e-07 -3.30558e-19)
(0.100031 5.85434e-07 -3.49063e-19)
(0.100031 5.54553e-07 -3.54188e-19)
(0.100008 -0.00382603 -3.65812e-19)
(0.0999371 0.00371504 -3.25629e-19)
(0.0999608 8.80776e-07 -3.33176e-19)
(0.0999604 8.55971e-07 -3.30762e-19)
(0.0999599 6.71994e-07 -3.35002e-19)
(0.0999593 5.18102e-07 -3.29078e-19)
(0.0999587 3.90797e-07 -3.28329e-19)
(0.0999582 2.8727e-07 -3.32653e-19)
(0.0999576 2.04942e-07 -3.42243e-19)
(0.0999572 1.41248e-07 -3.57612e-19)
(0.0999567 9.3558e-08 -3.63116e-19)
(0.0999564 5.9218e-08 -3.762e-19)
(0.0999561 3.55892e-08 -3.6398e-19)
(0.0999559 2.0122e-08 -3.59409e-19)
(0.0999557 1.03607e-08 -3.4607e-19)
(0.0999557 3.97017e-09 -3.3973e-19)
(0.0999557 -1.32032e-09 -3.0664e-19)
(0.0999557 -7.74086e-09 -2.78741e-19)
(0.0999559 -1.75604e-08 -2.54997e-19)
(0.0999561 -3.31155e-08 -2.34615e-19)
(0.0999564 -5.68568e-08 -2.16995e-19)
(0.0999567 -9.13379e-08 -2.01606e-19)
(0.0999572 -1.39191e-07 -1.87953e-19)
(0.0999576 -2.03072e-07 -1.75644e-19)
(0.0999582 -2.85603e-07 -1.64292e-19)
(0.0999587 -3.89354e-07 -1.53503e-19)
(0.0999593 -5.16894e-07 -1.42874e-19)
(0.0999598 -6.71038e-07 -1.31979e-19)
(0.0999604 -8.55273e-07 -1.20363e-19)
(0.0999608 -8.80391e-07 -1.07531e-19)
(0.099937 -0.00371509 -9.29324e-20)
(0.100039 0.00331522 -6.71386e-20)
(0.100064 -1.07538e-06 -8.95391e-20)
(0.100064 -1.07921e-06 -1.06957e-19)
(0.100064 -8.91807e-07 -1.19459e-19)
(0.100065 -7.37853e-07 -1.54927e-19)
(0.100065 -6.09753e-07 -1.58197e-19)
(0.100064 -5.01716e-07 -1.56947e-19)
(0.100064 -4.09519e-07 -1.50781e-19)
(0.100064 -3.30126e-07 -1.3914e-19)
(0.100064 -2.61312e-07 -1.21275e-19)
(0.100064 -2.01309e-07 -1.24184e-19)
(0.100064 -1.48569e-07 -1.20225e-19)
(0.100064 -1.0158e-07 -1.09557e-19)
(0.100063 -5.87913e-08 -1.20022e-19)
(0.100063 -1.85669e-08 -1.24856e-19)
(0.100063 2.07832e-08 -1.25672e-19)
(0.100063 6.09824e-08 -1.24066e-19)
(0.100064 1.03722e-07 -1.21575e-19)
(0.100064 1.50638e-07 -1.19089e-19)
(0.100064 2.03283e-07 -1.16892e-19)
(0.100064 2.63168e-07 -1.15319e-19)
(0.100064 3.31846e-07 -1.14759e-19)
(0.100064 4.11082e-07 -1.15016e-19)
(0.100064 5.0311e-07 -1.15931e-19)
(0.100065 6.1096e-07 -1.17366e-19)
(0.100065 7.38863e-07 -1.19183e-19)
(0.100064 8.92606e-07 -1.21224e-19)
(0.100064 1.07979e-06 -1.23293e-19)
(0.100064 1.07569e-06 -1.25139e-19)
(0.100039 -0.00331526 -9.86934e-20)
(0.0998927 0.00324537 -2.34873e-19)
(0.0999177 1.31039e-06 -2.54567e-19)
(0.0999174 1.15284e-06 -2.71532e-19)
(0.0999169 7.79639e-07 -2.86385e-19)
(0.0999164 4.94703e-07 -2.99525e-19)
(0.0999158 2.88492e-07 -3.11475e-19)
(0.0999153 1.47462e-07 -3.22791e-19)
(0.0999148 5.71937e-08 -3.33906e-19)
(0.0999144 4.30695e-09 -3.45161e-19)
(0.099914 -2.2559e-08 -3.56803e-19)
(0.0999137 -3.2363e-08 -3.464e-19)
(0.0999135 -3.17228e-08 -3.36771e-19)
(0.0999134 -2.51764e-08 -3.2807e-19)
(0.0999133 -1.5616e-08 -2.97329e-19)
(0.0999132 -4.72503e-09 -2.44231e-19)
(0.0999132 6.51889e-09 -1.90803e-19)
(0.0999133 1.73879e-08 -1.36383e-19)
(0.0999134 2.69063e-08 -1.0328e-19)
(0.0999135 3.33893e-08 -9.12717e-20)
(0.0999137 3.39499e-08 -7.76118e-20)
(0.099914 2.40454e-08 -6.25145e-20)
(0.0999144 -2.93402e-09 -6.9168e-20)
(0.0999148 -5.59508e-08 -7.51998e-20)
(0.0999153 -1.46356e-07 -8.12556e-20)
(0.0999158 -2.87538e-07 -8.79491e-20)
(0.0999163 -4.93905e-07 -9.58916e-20)
(0.0999169 -7.79008e-07 -1.05716e-19)
(0.0999174 -1.15238e-06 -1.18104e-19)
(0.0999177 -1.31014e-06 -1.10741e-19)